 Gaussian 16, Revision C.01,
 Gaussian 16:  ES64L-G16RevC.01  3-Jul-2019

 ----------------------------------------------
 # opt(ModRedundant) freq b3lyp/6-31g(d) nosymm
 ----------------------------------------------

 ------------
 Optimization
 ------------
 Symbolic Z-matrix:
 Charge =  0 Multiplicity = 1

 SCF Done:  E(RB3LYP) =  -209.161780882     A.U. after   13 cycles
 SCF Done:  E(RB3LYP) =  -209.162782704     A.U. after   12 cycles
 SCF Done:  E(RB3LYP) =  -209.164235658     A.U. after   13 cycles
 SCF Done:  E(RB3LYP) =  -209.165557342     A.U. after   14 cycles
 SCF Done:  E(RB3LYP) =  -209.167280147     A.U. after   12 cycles
 SCF Done:  E(RB3LYP) =  -209.167808389     A.U. after   12 cycles
 SCF Done:  E(RB3LYP) =  -209.167892426     A.U. after   13 cycles
 SCF Done:  E(RB3LYP) =  -209.168738094     A.U. after   12 cycles
 SCF Done:  E(RB3LYP) =  -209.168996726     A.U. after   11 cycles
 SCF Done:  E(RB3LYP) =  -209.169170902     A.U. after   11 cycles
 SCF Done:  E(RB3LYP) =  -209.171971811     A.U. after   12 cycles
 SCF Done:  E(RB3LYP) =  -209.171923378     A.U. after   14 cycles
 SCF Done:  E(RB3LYP) =  -209.172369054     A.U. after   11 cycles
 SCF Done:  E(RB3LYP) =  -209.171862087     A.U. after   12 cycles
 SCF Done:  E(RB3LYP) =  -209.172417043     A.U. after   10 cycles
 SCF Done:  E(RB3LYP) =  -209.172424505     A.U. after    9 cycles
 SCF Done:  E(RB3LYP) =  -209.172425464     A.U. after    8 cycles
 SCF Done:  E(RB3LYP) =  -209.172425569     A.U. after    8 cycles
 SCF Done:  E(RB3LYP) =  -209.172425619     A.U. after    7 cycles
 Optimization completed.
    -- Stationary point found.
 Normal termination of Gaussian 16 at Mon Sep 30 00:57:49 2019.

 --------------------------------------------------------------------
 #N Geom=AllCheck Guess=TCheck SCRF=Check GenChk RB3LYP/6-31G(d) Freq
 --------------------------------------------------------------------

 Structure from the checkpoint file:  "Acetonitrile-Water_2.chk"
 ------------
 Optimization
 ------------
 Charge =  0 Multiplicity = 1

                          Input orientation:
 ---------------------------------------------------------------------
 Center     Atomic      Atomic             Coordinates (Angstroms)
 Number     Number       Type             X           Y           Z
 ---------------------------------------------------------------------
      1          7           0        1.345688    0.069424    0.047337
      2          6           0       -1.272830    0.186311    0.081865
      3          6           0        0.185217    0.103840    0.054885
      4          1           0       -1.691146   -0.620965    0.691153
      5          1           0       -1.679765    0.108301   -0.931182
      6          1           0       -1.551855    1.152361    0.513877
      7          8           0        0.151384    2.908112    1.304550
      8          1           0        0.673604    2.317990    1.869822
      9          1           0        0.679403    2.936025    0.491594
 ---------------------------------------------------------------------

 SCF Done:  E(RB3LYP) =  -209.172425619     A.U. after    1 cycles

 Alpha  occ. eigenvalues --  -19.14675 -14.33681 -10.23695 -10.23355  -1.00488
 Alpha  occ. eigenvalues --   -0.90758  -0.77364  -0.52007  -0.51265  -0.46177
 Alpha  occ. eigenvalues --   -0.46083  -0.38485  -0.36394  -0.33105  -0.32968
 Alpha  occ. eigenvalues --   -0.29910
 Alpha virt. eigenvalues --    0.03319   0.03456   0.06039   0.10517   0.14833
 Alpha virt. eigenvalues --    0.16244   0.18205   0.18863   0.29538   0.53053
 Alpha virt. eigenvalues --    0.53118   0.57628   0.62900   0.62952   0.67239

 Mulliken charges:
               1
     1  N   -0.484785
     2  C   -0.534553
     3  C    0.356322
     4  H    0.203570
     5  H    0.203570
     6  H    0.234744
     7  O   -0.777157
     8  H    0.399193
     9  H    0.399095
 Sum of Mulliken charges =   0.00000

 Dipole moment (field-independent basis, Debye):
    X=             -2.0765    Y=             -0.5968    Z=             -0.2871  Tot=              2.1795
 Quadrupole moment (field-independent basis, Debye-Ang):
   XX=            -25.1862   YY=            -28.6027   ZZ=            -22.9760
   XY=              4.1751   XZ=              1.8222   YZ=             -3.1320

  Exact polarizability:      38.489      -0.023      24.246       0.090       0.156      23.945
 Approx polarizability:      63.433      -1.553      30.585      -0.478      -0.615      31.645

 ******    1 imaginary frequencies (negative Signs) ******

                      1                      2                      3
                      A                      A                      A
 Frequencies --   -128.7571                81.9333               124.3222
 Red. masses --      1.0318                 5.2812                 1.0240
 Frc consts  --      0.0101                 0.0209                 0.0093
 IR Inten    --     87.3269                25.7708                 1.0770

                      4                      5                      6
                      A                      A                      A
 Frequencies --    135.6331               250.5143               362.5347
 Red. masses --      5.5615                 1.0482                 1.3749
 Frc consts  --      0.0603                 0.0388                 0.1065
 IR Inten    --      3.7696                13.9010               267.1247

                      7                      8                      9
                      A                      A                      A
 Frequencies --    393.9918               396.3824               932.8694
 Red. masses --      3.7626                 2.2592                 4.6177
 Frc consts  --      0.3441                 0.2091                 2.3676
 IR Inten    --      0.7371                96.1622                 2.3681

                     10                     11                     12
                      A                      A                      A
 Frequencies --   1079.0832              1086.6285              1428.1586
 Red. masses --      1.4482                 1.4368                 1.2285
 Frc consts  --      0.9936                 0.9995                 1.4763
 IR Inten    --     12.0432                 2.4472                 8.5751

                     13                     14                     15
                      A                      A                      A
 Frequencies --   1496.9015              1513.1484              1721.7119
 Red. masses --      1.0393                 1.0412                 1.0828
 Frc consts  --      1.3721                 1.4046                 1.8912
 IR Inten    --      5.0276                 9.9334                76.3014

                     16                     17                     18
                      A                      A                      A
 Frequencies --   2372.4741              3066.1197              3140.7326
 Red. masses --     12.5549                 1.0333                 1.1029
 Frc consts  --     41.6358                 5.7232                 6.4100
 IR Inten    --     12.3567                 5.4205                 2.2301

                     19                     20                     21
                      A                      A                      A
 Frequencies --   3149.2566              3730.2790              3835.4862
 Red. masses --      1.1035                 1.0463                 1.0797
 Frc consts  --      6.4484                 8.5784                 9.3586
 IR Inten    --      1.5187                 4.9462                30.5505

 - Thermochemistry -
 -------------------
 Temperature   298.150 Kelvin.  Pressure   1.00000 Atm.
 Atom     1 has atomic number  7 and mass  14.00307

 Molecular mass:    59.03711 amu.
 Principal axes and moments of inertia in atomic units:
                           1         2         3
     Eigenvalues --   202.53457 423.70329 606.63972
           X            0.07215   0.99737  -0.00615
           Y            0.91086  -0.06840  -0.40702
           Z            0.40637  -0.02376   0.91340
 This molecule is an asymmetric top.
 Rotational symmetry number  1.
 Rotational temperatures (Kelvin)      0.42765     0.20442     0.14278
 Rotational constants (GHZ):           8.91078     4.25945     2.97498
    1 imaginary frequencies ignored.
 Zero-point vibrational energy     181223.2 (Joules/Mol)
                                   43.31340 (Kcal/Mol)
 Warning -- explicit consideration of   7 degrees of freedom as
           vibrations may cause significant error
 Vibrational temperatures:    117.88   178.87   195.15   360.43   521.61
          (Kelvin)            566.87   570.31  1342.19  1552.56  1563.42
                             2054.80  2153.71  2177.08  2477.16  3413.46
                             4411.46  4518.81  4531.08  5367.04  5518.41

 Zero-point correction=                           0.069024 (Hartree/Particle)
 Thermal correction to Energy=                    0.075565
 Thermal correction to Enthalpy=                  0.076509
 Thermal correction to Gibbs Free Energy=         0.039238
 Sum of electronic and zero-point Energies=           -209.103401
 Sum of electronic and thermal Energies=              -209.096860
 Sum of electronic and thermal Enthalpies=            -209.095916
 Sum of electronic and thermal Free Energies=         -209.133188

                     E (Thermal)             CV                S
                      KCal/Mol        Cal/Mol-Kelvin    Cal/Mol-Kelvin
 Total                   47.418             19.369             78.444
 Electronic               0.000              0.000              0.000
 Translational            0.889              2.981             38.147
 Rotational               0.889              2.981             25.457
 Vibrational             45.640             13.407             14.840
 Vibration     1          0.600              1.962              3.844
 Vibration     2          0.610              1.929              3.032
 Vibration     3          0.613              1.918              2.865
 Vibration     4          0.663              1.762              1.727
 Vibration     5          0.736              1.549              1.111
 Vibration     6          0.761              1.483              0.985
 Vibration     7          0.763              1.478              0.976

                           ! Non-Optimized Parameters !
 Normal termination of Gaussian 16 at Mon Sep 30 00:58:03 2019.
